<?xml version="1.0"?>
<VTKFile type="UnstructuredGrid"  version="0.1"  >
<UnstructuredGrid>
<Piece  NumberOfPoints="861" NumberOfCells="1600">
<Points>
<DataArray  type="Float64"  NumberOfComponents="3"  format="ascii">0 -0.01 0  0.0025 -0.01 0  0.005 -0.01 0  0.007500000000000001 -0.01 0  0.01 -0.01 0  0.0125 -0.01 0  0.015 -0.01 0  0.0175 -0.01 0  0.02 -0.01 0  0.0225 -0.01 0  0.025 -0.01 0  0.0275 -0.01 0  0.03000000000000001 -0.01 0  0.0325 -0.01 0  0.035 -0.01 0  0.0375 -0.01 0  0.04 -0.01 0  0.0425 -0.01 0  0.045 -0.01 0  0.0475 -0.01 0  0.05 -0.01 0  0.0525 -0.01 0  0.05500000000000001 -0.01 0  0.05750000000000001 -0.01 0  0.06000000000000001 -0.01 0  0.0625 -0.01 0  0.065 -0.01 0  0.0675 -0.01 0  0.07000000000000001 -0.01 0  0.07250000000000001 -0.01 0  0.075 -0.01 0  0.0775 -0.01 0  0.08 -0.01 0  0.0825 -0.01 0  0.08500000000000001 -0.01 0  0.08749999999999999 -0.01 0  0.09 -0.01 0  0.0925 -0.01 0  0.095 -0.01 0  0.0975 -0.01 0  0.1 -0.01 0  0 -0.009000000000000001 0  0.0025 -0.009000000000000001 0  0.005 -0.009000000000000001 0  0.007500000000000001 -0.009000000000000001 0  0.01 -0.009000000000000001 0  0.0125 -0.009000000000000001 0  0.015 -0.009000000000000001 0  0.0175 -0.009000000000000001 0  0.02 -0.009000000000000001 0  0.0225 -0.009000000000000001 0  0.025 -0.009000000000000001 0  0.0275 -0.009000000000000001 0  0.03000000000000001 -0.009000000000000001 0  0.0325 -0.009000000000000001 0  0.035 -0.009000000000000001 0  0.0375 -0.009000000000000001 0  0.04 -0.009000000000000001 0  0.0425 -0.009000000000000001 0  0.045 -0.009000000000000001 0  0.0475 -0.009000000000000001 0  0.05 -0.009000000000000001 0  0.0525 -0.009000000000000001 0  0.05500000000000001 -0.009000000000000001 0  0.05750000000000001 -0.009000000000000001 0  0.06000000000000001 -0.009000000000000001 0  0.0625 -0.009000000000000001 0  0.065 -0.009000000000000001 0  0.0675 -0.009000000000000001 0  0.07000000000000001 -0.009000000000000001 0  0.07250000000000001 -0.009000000000000001 0  0.075 -0.009000000000000001 0  0.0775 -0.009000000000000001 0  0.08 -0.009000000000000001 0  0.0825 -0.009000000000000001 0  0.08500000000000001 -0.009000000000000001 0  0.08749999999999999 -0.009000000000000001 0  0.09 -0.009000000000000001 0  0.0925 -0.009000000000000001 0  0.095 -0.009000000000000001 0  0.0975 -0.009000000000000001 0  0.1 -0.009000000000000001 0  0 -0.008 0  0.0025 -0.008 0  0.005 -0.008 0  0.007500000000000001 -0.008 0  0.01 -0.008 0  0.0125 -0.008 0  0.015 -0.008 0  0.0175 -0.008 0  0.02 -0.008 0  0.0225 -0.008 0  0.025 -0.008 0  0.0275 -0.008 0  0.03000000000000001 -0.008 0  0.0325 -0.008 0  0.035 -0.008 0  0.0375 -0.008 0  0.04 -0.008 0  0.0425 -0.008 0  0.045 -0.008 0  0.0475 -0.008 0  0.05 -0.008 0  0.0525 -0.008 0  0.05500000000000001 -0.008 0  0.05750000000000001 -0.008 0  0.06000000000000001 -0.008 0  0.0625 -0.008 0  0.065 -0.008 0  0.0675 -0.008 0  0.07000000000000001 -0.008 0  0.07250000000000001 -0.008 0  0.075 -0.008 0  0.0775 -0.008 0  0.08 -0.008 0  0.0825 -0.008 0  0.08500000000000001 -0.008 0  0.08749999999999999 -0.008 0  0.09 -0.008 0  0.0925 -0.008 0  0.095 -0.008 0  0.0975 -0.008 0  0.1 -0.008 0  0 -0.007 0  0.0025 -0.007 0  0.005 -0.007 0  0.007500000000000001 -0.007 0  0.01 -0.007 0  0.0125 -0.007 0  0.015 -0.007 0  0.0175 -0.007 0  0.02 -0.007 0  0.0225 -0.007 0  0.025 -0.007 0  0.0275 -0.007 0  0.03000000000000001 -0.007 0  0.0325 -0.007 0  0.035 -0.007 0  0.0375 -0.007 0  0.04 -0.007 0  0.0425 -0.007 0  0.045 -0.007 0  0.0475 -0.007 0  0.05 -0.007 0  0.0525 -0.007 0  0.05500000000000001 -0.007 0  0.05750000000000001 -0.007 0  0.06000000000000001 -0.007 0  0.0625 -0.007 0  0.065 -0.007 0  0.0675 -0.007 0  0.07000000000000001 -0.007 0  0.07250000000000001 -0.007 0  0.075 -0.007 0  0.0775 -0.007 0  0.08 -0.007 0  0.0825 -0.007 0  0.08500000000000001 -0.007 0  0.08749999999999999 -0.007 0  0.09 -0.007 0  0.0925 -0.007 0  0.095 -0.007 0  0.0975 -0.007 0  0.1 -0.007 0  0 -0.006 0  0.0025 -0.006 0  0.005 -0.006 0  0.007500000000000001 -0.006 0  0.01 -0.006 0  0.0125 -0.006 0  0.015 -0.006 0  0.0175 -0.006 0  0.02 -0.006 0  0.0225 -0.006 0  0.025 -0.006 0  0.0275 -0.006 0  0.03000000000000001 -0.006 0  0.0325 -0.006 0  0.035 -0.006 0  0.0375 -0.006 0  0.04 -0.006 0  0.0425 -0.006 0  0.045 -0.006 0  0.0475 -0.006 0  0.05 -0.006 0  0.0525 -0.006 0  0.05500000000000001 -0.006 0  0.05750000000000001 -0.006 0  0.06000000000000001 -0.006 0  0.0625 -0.006 0  0.065 -0.006 0  0.0675 -0.006 0  0.07000000000000001 -0.006 0  0.07250000000000001 -0.006 0  0.075 -0.006 0  0.0775 -0.006 0  0.08 -0.006 0  0.0825 -0.006 0  0.08500000000000001 -0.006 0  0.08749999999999999 -0.006 0  0.09 -0.006 0  0.0925 -0.006 0  0.095 -0.006 0  0.0975 -0.006 0  0.1 -0.006 0  0 -0.005 0  0.0025 -0.005 0  0.005 -0.005 0  0.007500000000000001 -0.005 0  0.01 -0.005 0  0.0125 -0.005 0  0.015 -0.005 0  0.0175 -0.005 0  0.02 -0.005 0  0.0225 -0.005 0  0.025 -0.005 0  0.0275 -0.005 0  0.03000000000000001 -0.005 0  0.0325 -0.005 0  0.035 -0.005 0  0.0375 -0.005 0  0.04 -0.005 0  0.0425 -0.005 0  0.045 -0.005 0  0.0475 -0.005 0  0.05 -0.005 0  0.0525 -0.005 0  0.05500000000000001 -0.005 0  0.05750000000000001 -0.005 0  0.06000000000000001 -0.005 0  0.0625 -0.005 0  0.065 -0.005 0  0.0675 -0.005 0  0.07000000000000001 -0.005 0  0.07250000000000001 -0.005 0  0.075 -0.005 0  0.0775 -0.005 0  0.08 -0.005 0  0.0825 -0.005 0  0.08500000000000001 -0.005 0  0.08749999999999999 -0.005 0  0.09 -0.005 0  0.0925 -0.005 0  0.095 -0.005 0  0.0975 -0.005 0  0.1 -0.005 0  0 -0.004 0  0.0025 -0.004 0  0.005 -0.004 0  0.007500000000000001 -0.004 0  0.01 -0.004 0  0.0125 -0.004 0  0.015 -0.004 0  0.0175 -0.004 0  0.02 -0.004 0  0.0225 -0.004 0  0.025 -0.004 0  0.0275 -0.004 0  0.03000000000000001 -0.004 0  0.0325 -0.004 0  0.035 -0.004 0  0.0375 -0.004 0  0.04 -0.004 0  0.0425 -0.004 0  0.045 -0.004 0  0.0475 -0.004 0  0.05 -0.004 0  0.0525 -0.004 0  0.05500000000000001 -0.004 0  0.05750000000000001 -0.004 0  0.06000000000000001 -0.004 0  0.0625 -0.004 0  0.065 -0.004 0  0.0675 -0.004 0  0.07000000000000001 -0.004 0  0.07250000000000001 -0.004 0  0.075 -0.004 0  0.0775 -0.004 0  0.08 -0.004 0  0.0825 -0.004 0  0.08500000000000001 -0.004 0  0.08749999999999999 -0.004 0  0.09 -0.004 0  0.0925 -0.004 0  0.095 -0.004 0  0.0975 -0.004 0  0.1 -0.004 0  0 -0.002999999999999999 0  0.0025 -0.002999999999999999 0  0.005 -0.002999999999999999 0  0.007500000000000001 -0.002999999999999999 0  0.01 -0.002999999999999999 0  0.0125 -0.002999999999999999 0  0.015 -0.002999999999999999 0  0.0175 -0.002999999999999999 0  0.02 -0.002999999999999999 0  0.0225 -0.002999999999999999 0  0.025 -0.002999999999999999 0  0.0275 -0.002999999999999999 0  0.03000000000000001 -0.002999999999999999 0  0.0325 -0.002999999999999999 0  0.035 -0.002999999999999999 0  0.0375 -0.002999999999999999 0  0.04 -0.002999999999999999 0  0.0425 -0.002999999999999999 0  0.045 -0.002999999999999999 0  0.0475 -0.002999999999999999 0  0.05 -0.002999999999999999 0  0.0525 -0.002999999999999999 0  0.05500000000000001 -0.002999999999999999 0  0.05750000000000001 -0.002999999999999999 0  0.06000000000000001 -0.002999999999999999 0  0.0625 -0.002999999999999999 0  0.065 -0.002999999999999999 0  0.0675 -0.002999999999999999 0  0.07000000000000001 -0.002999999999999999 0  0.07250000000000001 -0.002999999999999999 0  0.075 -0.002999999999999999 0  0.0775 -0.002999999999999999 0  0.08 -0.002999999999999999 0  0.0825 -0.002999999999999999 0  0.08500000000000001 -0.002999999999999999 0  0.08749999999999999 -0.002999999999999999 0  0.09 -0.002999999999999999 0  0.0925 -0.002999999999999999 0  0.095 -0.002999999999999999 0  0.0975 -0.002999999999999999 0  0.1 -0.002999999999999999 0  0 -0.002 0  0.0025 -0.002 0  0.005 -0.002 0  0.007500000000000001 -0.002 0  0.01 -0.002 0  0.0125 -0.002 0  0.015 -0.002 0  0.0175 -0.002 0  0.02 -0.002 0  0.0225 -0.002 0  0.025 -0.002 0  0.0275 -0.002 0  0.03000000000000001 -0.002 0  0.0325 -0.002 0  0.035 -0.002 0  0.0375 -0.002 0  0.04 -0.002 0  0.0425 -0.002 0  0.045 -0.002 0  0.0475 -0.002 0  0.05 -0.002 0  0.0525 -0.002 0  0.05500000000000001 -0.002 0  0.05750000000000001 -0.002 0  0.06000000000000001 -0.002 0  0.0625 -0.002 0  0.065 -0.002 0  0.0675 -0.002 0  0.07000000000000001 -0.002 0  0.07250000000000001 -0.002 0  0.075 -0.002 0  0.0775 -0.002 0  0.08 -0.002 0  0.0825 -0.002 0  0.08500000000000001 -0.002 0  0.08749999999999999 -0.002 0  0.09 -0.002 0  0.0925 -0.002 0  0.095 -0.002 0  0.0975 -0.002 0  0.1 -0.002 0  0 -0.001000000000000001 0  0.0025 -0.001000000000000001 0  0.005 -0.001000000000000001 0  0.007500000000000001 -0.001000000000000001 0  0.01 -0.001000000000000001 0  0.0125 -0.001000000000000001 0  0.015 -0.001000000000000001 0  0.0175 -0.001000000000000001 0  0.02 -0.001000000000000001 0  0.0225 -0.001000000000000001 0  0.025 -0.001000000000000001 0  0.0275 -0.001000000000000001 0  0.03000000000000001 -0.001000000000000001 0  0.0325 -0.001000000000000001 0  0.035 -0.001000000000000001 0  0.0375 -0.001000000000000001 0  0.04 -0.001000000000000001 0  0.0425 -0.001000000000000001 0  0.045 -0.001000000000000001 0  0.0475 -0.001000000000000001 0  0.05 -0.001000000000000001 0  0.0525 -0.001000000000000001 0  0.05500000000000001 -0.001000000000000001 0  0.05750000000000001 -0.001000000000000001 0  0.06000000000000001 -0.001000000000000001 0  0.0625 -0.001000000000000001 0  0.065 -0.001000000000000001 0  0.0675 -0.001000000000000001 0  0.07000000000000001 -0.001000000000000001 0  0.07250000000000001 -0.001000000000000001 0  0.075 -0.001000000000000001 0  0.0775 -0.001000000000000001 0  0.08 -0.001000000000000001 0  0.0825 -0.001000000000000001 0  0.08500000000000001 -0.001000000000000001 0  0.08749999999999999 -0.001000000000000001 0  0.09 -0.001000000000000001 0  0.0925 -0.001000000000000001 0  0.095 -0.001000000000000001 0  0.0975 -0.001000000000000001 0  0.1 -0.001000000000000001 0  0 0 0  0.0025 0 0  0.005 0 0  0.007500000000000001 0 0  0.01 0 0  0.0125 0 0  0.015 0 0  0.0175 0 0  0.02 0
[...]
<PointData  Vectors="Desplazamiento"> 
<DataArray  type="Float64"  Name="Desplazamiento"  NumberOfComponents="3" format="ascii">0.0000000000000000e+00 0.0000000000000000e+00 0.0000000000000000e+00  1.2007508313232291e-06 -9.2631512962354371e-06 0.0000000000000000e+00  5.4022634892796919e-06 -1.3457615734700823e-05 0.0000000000000000e+00  9.6721668322335764e-06 -1.6263607080756640e-05 0.0000000000000000e+00  1.3784149477129929e-05 -1.8556495504633665e-05 0.0000000000000000e+00  1.7697920402991364e-05 -2.0724644338900652e-05 0.0000000000000000e+00  2.1441675668295416e-05 -2.2985136237674934e-05 0.0000000000000000e+00  2.5058761036044401e-05 -2.5459852033737785e-05 0.0000000000000000e+00  2.8589875066279868e-05 -2.8215150786965833e-05 0.0000000000000000e+00  3.2066919453948180e-05 -3.1284769083462863e-05 0.0000000000000000e+00  3.5512282488311844e-05 -3.4684074773376837e-05 0.0000000000000000e+00  3.8940401084586852e-05 -3.8418798728927240e-05 0.0000000000000000e+00  4.2359917299692902e-05 -4.2490107263116576e-05 0.0000000000000000e+00  4.5775636704009138e-05 -4.6897339088714283e-05 0.0000000000000000e+00  4.9190018345035447e-05 -5.1639345672068014e-05 0.0000000000000000e+00  5.2604189158489172e-05 -5.6715058736203213e-05 0.0000000000000000e+00  5.6018578095902486e-05 -6.2123668122786847e-05 0.0000000000000000e+00  5.9433283425982260e-05 -6.7864627007042558e-05 0.0000000000000000e+00  6.2848269429062304e-05 -7.3937596733010086e-05 0.0000000000000000e+00  6.6263462231012932e-05 -8.0342382977199647e-05 0.0000000000000000e+00  6.9678790408690965e-05 -8.7078882903290051e-05 0.0000000000000000e+00  7.3094197888409098e-05 -9.4147047756335661e-05 0.0000000000000000e+00  7.6509644555044546e-05 -1.0154685924277484e-04 0.0000000000000000e+00  7.9925102627184005e-05 -1.0927831640354226e-04 0.0000000000000000e+00  8.3340552823405825e-05 -1.1734142992667187e-04 0.0000000000000000e+00  8.6755982519604066e-05 -1.2573622162068159e-04 0.0000000000000000e+00  9.0171387718639869e-05 -1.3446272740568320e-04 0.0000000000000000e+00  9.3586781269972376e-05 -1.4352100231063099e-04 0.0000000000000000e+00  9.7002211139912266e-05 -1.5291112537096875e-04 0.0000000000000000e+00  1.0041779454846531e-04 -1.6263320095678894e-04 0.0000000000000000e+00  1.0383377675172916e-04 -1.7268735132686049e-04 0.0000000000000000e+00  1.0725062900675626e-04 -1.8307369430055380e-04 0.0000000000000000e+00  1.1066921583742139e-04 -1.9379230125261072e-04 0.0000000000000000e+00  1.1409110830372801e-04 -2.0484312977032723e-04 0.0000000000000000e+00  1.1751924969308164e-04 -2.1622588703585182e-04 0.0000000000000000e+00  1.2095948894927654e-04 -2.2793955874700944e-04 0.0000000000000000e+00  1.2442404280727445e-04 -2.3998048189662033e-04 0.0000000000000000e+00  1.2793815554843339e-04 -2.5233532220608854e-04 0.0000000000000000e+00  1.3154752658712770e-04 -2.6496051092552488e-04 0.0000000000000000e+00  1.3530610993865862e-04 -2.7774244534927448e-04 0.0000000000000000e+00  1.3919708065785567e-04 -2.9050097160453350e-04 0.0000000000000000e+00  0.0000000000000000e+00 0.0000000000000000e+00 0.0000000000000000e+00  3.0112745266534918e-06 -7.7416910492503897e-06 0.0000000000000000e+00  6.6625223929757676e-06 -1.1931692396874566e-05 0.0000000000000000e+00  1.0675776456967714e-05 -1.4740789552648670e-05 0.0000000000000000e+00  1.4687716507970521e-05 -1.7010425707778648e-05 0.0000000000000000e+00  1.8601076637568758e-05 -1.9153057421875693e-05 0.0000000000000000e+00  2.2404478072174812e-05 -2.1392294075331697e-05 0.0000000000000000e+00  2.6116700756592434e-05 -2.3851542948002356e-05 0.0000000000000000e+00  2.9762995916848224e-05 -2.6596575015393713e-05 0.0000000000000000e+00  3.3365822896388065e-05 -2.9659876580323998e-05 0.0000000000000000e+00  3.6942083970619364e-05 -3.3055564833660707e-05 0.0000000000000000e+00  4.0503235650291261e-05 -3.6788370408921099e-05 0.0000000000000000e+00  4.4056436378541192e-05 -4.0858753887252945e-05 0.0000000000000000e+00  4.7605841862237808e-05 -4.5265599127341781e-05 0.0000000000000000e+00  5.1153688034068727e-05 -5.0007486143215403e-05 0.0000000000000000e+00  5.4701073370523575e-05 -5.5083196375356346e-05 0.0000000000000000e+00  5.8248471194065945e-05 -6.0491843201917002e-05 0.0000000000000000e+00  6.1796039445930818e-05 -6.6232845033667768e-05 0.0000000000000000e+00  6.5343794399363607e-05 -7.2305850160055290e-05 0.0000000000000000e+00  6.8891700346019637e-05 -7.8710661386036104e-05 0.0000000000000000e+00  7.2439711171813539e-05 -8.5447177040412180e-05 0.0000000000000000e+00  7.5987786491523332e-05 -9.2515350591058359e-05 0.0000000000000000e+00  7.9535895630495674e-05 -9.9915165783716976e-05 0.0000000000000000e+00  8.3084016767806808e-05 -1.0764662317317079e-04 0.0000000000000000e+00  8.6632135137373060e-05 -1.1570973456191581e-04 0.0000000000000000e+00  9.0180242539375066e-05 -1.2410452290670111e-04 0.0000000000000000e+00  9.3728339974382110e-05 -1.3283102607174001e-04 0.0000000000000000e+00  9.7276445619021509e-05 -1.4188930307129939e-04 0.0000000000000000e+00  1.0082461142239924e-04 -1.5127944095645745e-04 0.0000000000000000e+00  1.0437295328943208e-04 -1.6100155924724123e-04 0.0000000000000000e+00  1.0792170249243843e-04 -1.7105580730263577e-04 0.0000000000000000e+00  1.1147129122842507e-04 -1.8144234986570032e-04 0.0000000000000000e+00  1.1502249829981139e-04 -1.9216133981864191e-04 0.0000000000000000e+00  1.1857671528921903e-04 -2.0321288349959293e-04 0.0000000000000000e+00  1.2213647738024973e-04 -2.1459698298284587e-04 0.0000000000000000e+00  1.2570657231581410e-04 -2.2631324971945165e-04 0.0000000000000000e+00  1.2929625826411676e-04 -2.3835934411960534e-04 0.0000000000000000e+00  1.3292291713554370e-04 -2.5072439193389671e-04 0.0000000000000000e+00  1.3661496217505333e-04 -2.6336774559618871e-04 0.0000000000000000e+00  1.4040329681363559e-04 -2.7617386407889286e-04 0.0000000000000000e+00  1.4428304583094645e-04 -2.8894201339859683e-04 0.0000000000000000e+00  0.0000000000000000e+00 0.0000000000000000e+00 0.0000000000000000e+00  4.1963589298070078e-06 -6.1941764938403372e-06 0.0000000000000000e+00  7.8100258917821720e-06 -1.0395129434633455e-05 0.0000000000000000e+00  1.1686105790865546e-05 -1.3202975347516897e-05 0.0000000000000000e+00  1.5633474673588956e-05 -1.5459670383397614e-05 0.0000000000000000e+00  1.9548898101932683e-05 -1.7586056272748553e-05 0.0000000000000000e+00  2.3403673310779939e-05 -1.9810871117310639e-05 0.0000000000000000e+00  2.7200700044788550e-05 -2.2259308217171378e-05 0.0000000000000000e+00  3.0953177631268710e-05 -2.4997057408011367e-05 0.0000000000000000e+00  3.4675088769929798e-05 -2.8055842756506259e-05 0.0000000000000000e+00  3.8377742049641543e-05 -3.1448931623992023e-05 0.0000000000000000e+00  4.2069129398640193e-05 -3.5180352568315517e-05 0.0000000000000000e+00  4.5754400801986417e-05 -3.9250064610132991e-05 0.0000000000000000e+00  4.9436630155761508e-05 -4.3656626491049749e-05 0.0000000000000000e+00  5.3117521182149582e-05 -4.8398423512647288e-05 0.0000000000000000e+00  5.6797942935684231e-05 -5.3474128966462973e-05 0.0000000000000000e+00  6.0478292373405528e-05 -5.8882800974273069e-05 0.0000000000000000e+00  6.4158719851583701e-05 -6.4623832654499990e-05 0.0000000000000000e+00  6.7839259188062830e-05 -7.0696862663031181e-05 0.0000000000000000e+00  7.1519897055268627e-05 -7.7101691559518357e-05 0.0000000000000000e+00  7.5200606660125901e-05 -8.3838218390913365e-05 0.0000000000000000e+00  7.8881361952242720e-05 -9.0906398151653018e-05 0.0000000000000000e+00  8.2562142157600416e-05 -9.8306216017117283e-05 0.0000000000000000e+00  8.6242932200298824e-05 -1.0603767361981679e-04 0.0000000000000000e+00  8.9923722084081560e-05 -1.1410078357498111e-04 0.0000000000000000e+00  9.3604507068236568e-05 -1.2249556970210163e-04 0.0000000000000000e+00  9.7285290111841479e-05 -1.3122207134141258e-04 0.0000000000000000e+00  1.0096608833315302e-04 -1.4028035052846986e-04 0.0000000000000000e+00  1.0464694600438723e-04 -1.4967050038283146e-04 0.0000000000000000e+00  1.0832795783427240e-04 -1.5939265187817862e-04 0.0000000000000000e+00  1.1200930807789866e-04 -1.6944697471153923e-04 0.0000000000000000e+00  1.1569133381057002e-04 -1.7983366796604712e-04 0.0000000000000000e+00  1.1937462585485477e-04 -1.9055294059002953e-04 0.0000000000000000e+00  1.2306019141369452e-04 -2.0160498997825956e-04 0.0000000000000000e+00  1.2674972359517407e-04 -2.1298997211155373e-04 0.0000000000000000e+00  1.3044606067525726e-04 -2.2470778425023893e-04 0.0000000000000000e+00  1.3415398307240620e-04 -2.3675669017761319e-04 0.0000000000000000e+00  1.3788166515147352e-04 -2.4912723968176936e-04 0.0000000000000000e+00  1.4164356803400050e-04 -2.6178209704252230e-04 0.0000000000000000e+00  1.4546395464953545e-04 -2.7460999673361664e-04 0.0000000000000000e+00  1.4935873416398613e-04 -2.8738983355563362e-04 0.0000000000000000e+00  0.0000000000000000e+00 0.0000000000000000e+00 0.0000000000000000e+00  4.8680523718159656e-06 -4.9683267108758872e-06 0.0000000000000000e+00  8.7692383208130609e-06 -8.9114827155436116e-06 0.0000000000000000e+00  1.2654025876748013e-05 -1.1672604477282273e-05 0.0000000000000000e+00  1.6587395522504155e-05 -1.3910545206802460e-05 0.0000000000000000e+00  2.0519325989776952e-05 -1.6023688722504932e-05 0.0000000000000000e+00  2.4425525434321169e-05 -1.8238821447446309e-05 0.0000000000000000e+00  2.8302619587225429e-05 -2.0680792426450015e-05 0.0000000000000000e+00  3.2155881992330915e-05 -2.3414616663230814e-05 0.0000000000000000e+00  3.5992372064982329e-05 -2.6471227834729698e-05 0.0000000000000000e+00  3.9818164932563840e-05 -2.9863225595897755e-05 0.0000000000000000e+00  4.3637654854982987e-05 -3.3594166164113458e-05 0.0000000000000000e+00  4.7453702797570887e-05 -3.7663711329953323e-05 0.0000000000000000e+00  5.1268026441926703e-05 -4.2070249418553860e-05 0.0000000000000000e+00  5.5081582563690637e-05 -4.6812076411891366e-05 0.0000000000000000e+00  5.8894862211112507e-05 -5.1887823530750083e-05 0.0000000000000000e+00  6.2708091891600405e-05 -5.7296532079860120e-05 0.0000000000000000e+00  6.6521359181226830e-05 -6.3037590592163485e-05 0.0000000000000000e+00  7.0334685444856589e-05 -6.9110638274409990e-05 0.0000000000000000e+00  7.4148064826102056e-05 -7.5515477842854611e-05 0.0000000000000000e+00  7.7961483315060887e-05 -8.2252010552459742e-05 0.0000000000000000e+00  8.1774926905774214e-05 -8.9320193108023054e-05 0.0000000000000000e+00  8.5588384298611347e-05 -9.6720011807667442e-05 0.0000000000000000e+00  8.9401847260814371e-05 -1.0445146890983614e-04 0.0000000000000000e+00  9.3215310379967870e-05 -1.1251457731298534e-04 0.0000000000000000e+00  9.7028771265961260e-05 -1.2090936097459005e-04 0.0000000000000000e+00  1.0084223207725824e-04 -1.2963585951484451e-04 0.0000000000000000e+00  1.0465570344176621e-04 -1.3869413586746531e-04 0.0000000000000000e+00  1.0846921233098120e-04 -1.4808428546619304e-04 0.0000000000000000e+00  1.1228281611208882e-04 -1.5780644422268584e-04 0.0000000000000000e+00  1.1609662549130080e-04 -1.6786079080308210e-04 0.0000000000000000e+00  1.1991083827334413e-04 -1.7824753772082159e-04 0.0000000000000000e+00  1.2372578080095884e-04 -1.8896690771847733e-04 0.0000000000000000e+00  1.2754193766356165e-04 -2.0001909581876230e-04 0.0000000000000000e+00  1.3135991096139424e-04 -2.1140419942403086e-04 0.0000000000000000e+00  1.3518018707311827e-04 -2.2312194767555699e-04 0.0000000000000000e+00  1.3900261625067218e-04 -2.3517041839329230e-04 0.0000000000000000e+00  1.4282627493242340e-04 -2.4754093298531783e-04 0.0000000000000000e+00  1.4665371832732282e-04 -2.6020158090305038e-04 0.0000000000000000e+00  1.5050676818663156e-04 -2.7305367989405364e-04 0.0000000000000000e+00  1.5442311282088100e-04 -2.8585744711058931e-04 0.0000000000000000e+00  0.0000000000000000e+00 0.0000000000000000e+00 0.0000000000000000e+00  5.3065561586033972e-06 -3.9846140964452872e-06 0.0000000000000000e+00  9.5617089270000798e-06 -7.5151208404210885e-06 0.0000000000000000e+00  1.3556813824379367e-05 -1.0170040588170062e-05 0.0000000000000000e+00  1.7526895592721686e-05 -1.2370807877513127e-05 0.0000000000000000e+00  2.1495186797158718e-05 -1.4467757662321617e-05 0.0000000000000000e+00  2.5458210519928373e-05 -1.6675567876452587e-05 0.0000000000000000e+00  2.9414853523077035e-05 -1.9114732563271397e-05 0.0000000000000000e+00  3.3366515839698469e-05 -2.1848021941907162e-05 0.0000000000000000e+00  3.7315076381419721e-05 -2.4905072704774373e-05 0.0000000000000000e+00  4.1261992153014968e-05 -2.8297784833769626e-05 0.0000000000000000e+00  4.5208165984334131e-05 -3.2029392477554743e-05 0.0000000000000000e+00  4.9154079594857361e-05 -3.6099448284518150e-05 0.0000000000000000e+00  5.3099955516230701e-05 -4.0506334067444377e-05 0.0000000000000000e+00  5.7045877189574680e-05 -4.5248378022362780e-05 0.0000000000000000e+00  6.0991862434205498e-05 -5.0324250516226417e-05 0.0000000000000000e+00  6.4937903121556331e-05 -5.5733026049685490e-05 0.0000000000000000e+00  6.8883984261432920e-05 -6.1474117150243094e-05 0.0000000000000000e+00  7.2830091886390294e-05 -6.7547178674233282e-05 0.0000000000000000e+00  7.6776215440277067e-05 -7.3952022739542114e-05 0.0000000000000000e+00  8.0722347800221150e-05 -8.0688555817497263e-05 0.0000000000000000e+00  8.4668484492970655e-05 -8.7756737235202849e-05 0.0000000000000000e+00  8.8614622798638049e-05 -9.5156554384829162e-05 0.0000000000000000e+00  9.2560760998690653e-05 -1.0288800971799240e-04 0.0000000000000000e+00  9.6506897839449002e-05 -1.1095111573017734e-04 0.0000000000000000e+00  1.0045303224434724e-04 -1.1934589546692998e-04 0.0000000000000000e+00  1.0439916337217661e-04 -1.2807238708918497e-04 0.0000000000000000e+00  1.0834529127137854e-04 -1.3713065144694992e-04 0.0000000000000000e+00  1.1229141858964004e-04 -1.4652078120907196e-04 0.0000000000000000e+00  1.1623755385839512e-04 -1.5624290868223250e-04 0.0000000000000000e+00  1.2018371596543632e-04 -1.6629720698732096e-04 0.0000000000000000e+00  1.2412993500531479e-04 -1.7668387612295450e-04 0.0000000000000000e+00  1.2807623007648781e-04 -1.8740310217588081e-04 0.0000000000000000e+00  1.3202250526827877e-04 -1.9845497204727997e-04 0.0000000000000000e+00  1.3596821859496907e-04 -2.0983929900110276e-04 0.0000000000000000e+00  1.3991154523160715e-04 -2.2155519554849763e-04 0.0000000000000000e+00  1.4384776604148500e-04 -2.3359983105025021e-04 0.0000000000000000e+00  1.4776774053294891e-04 -2.4596474949948151e-04 0.0000000000000000e+00  1.5166246244086135e-04 -2.5862532841744993e-04 0.0000000000000000e+00  1.5554861382878628e-04 -2.7150473132319151e-04 0.0000000000000000e+00  1.5948822786707054e-04 -2.8435525170883734e-04 0.0000000000000000e+00  0.0000000000000000e+00 0.0000000000000000e+00 0.0000000000000000e+00  5.6308015750418983e-06 -3.1642158108969411e-06 0.0000000000000000e+00  1.0223999852344494e-05 -6.2251995224723495e-06 0.0000000000000000e+00  1.4389268129162694e-05 -8.7109657526575351e-06 0.0000000000000000e+00  1.8437846229232724e-05 -1.0848237127827860e-05 0.0000000000000000e+00  2.2463106299152909e-05 -1.2921224486731296e-05 0.0000000000000000e+00  2.6491442183413174e-05 -1.5121768139532483e-05 0.0000000000000000e+00  3.0530281229274976e-05 -1.7560881953627769e-05 0.0000000000000000e+00  3.4580517994322529e-05 -2.0296783194991815e-05 0.0000000000000000e+00  3.8640475713578043e-05 -2.3356913627695516e-05 0.0000000000000000e+00  4.2707704968844371e-05 -2.6752255177638538e-05 0.0000000000000000e+00  4.6779881826687938e-05 -3.0485790981605132e-05 0.0000000000000000e+00  5.0855170096679119e-05 -3.4557125419060060e-05 0.0000000000000000e+00  5.4932277365497156e-05 -3.8964793515068434e-05 0.0000000000000000e+00  5.9010370622126609e-05 -4.3707281662772553e-05 0.0000000000000000e+00  6.3088952540696957e-05 -4.8783387020066850e-05 0.0000000000000000e+00  6.7167747789237354e-05 -5.4192273026636996e-05 0.0000000000000000e+00  7.1246616412513929e-05 -5.9933409050106169e-05 0.0000000000000000e+00  7.5325494997261280e-05 -6.6006483544603221e-05 0.0000000000000000e+00  7.9404360038443707e-05 -7.2411327026401491e-05 0.0000000000000000e+00  8.3483206819318670e-05 -7.9147855187644827e-05 0.0000000000000000e+00  8.7562038140367478e-05 -8.6216031405175934e-05 0.0000000000000000e+00  9.1640858780930886e-05 -9.3615844360726632e-05 0.0000000000000000e+00  9.5719672958571013e-05 -1.0134729631269814e-04 0.0000000000000000e+00  9.9798483051774723e-05 -1.0941039859025082e-04 0.0000000000000000e+00  1.0387728847679221e-04 -1.1780517208635861e-04 0.0000000000000000e+00  1.0795608394313778e-04 -1.2653165143500274e-04 0.0000000000000000e+00  1.1203485644453967e-04 -1.3558989190241047e-04 0.0000000000000000e+00  1.1611358029096525e-04 -1.4497997753249467e-04 0.0000000000000000e+00  1.2019220899172447e-04 -1.5470202736978493e-04 0.0000000000000000e+00  1.2427066072104989e-04 -1.6475619306099946e-04 0.0000000000000000e+00  1.2834878692796956e-04 -1.7514263493773454e-04 0.0000000000000000e+00  1.3242629245862892e-04 -1.8586145312931575e-04 0.0000000000000000e+00  1.3650252164897945e-04 -1.9691253099433001e-04 0.0000000000000000e+00  1.4057591047832589e-04 -2.0829520882829732e-04 0.0000000000000000e+00  1.4464272845384578e-04 -2.2000762599121864e-04 0.0000000000000000e+00  1.4869468826916345e-04 -2.3204545477606260e-04 0.0000000000000000e+00  1.5271603862812412e-04 -2.4439975592327896e-04 0.0000000000000000e+00  1.5668609074216404e-04 -2.5705346338895685e-04 0.0000000000000000e+00  1.6060913214516325e-04 -2.6996108646332791e-04 0.0000000000000000e+00  1.6457185578301704e-04 -2.8289102141998266e-04 0.0000000000000000e+00  0.0000000000000000e+00 0.0000000000000000e+00 0.0000000000000000e+00  5.8973233096676695e-06 -2.4571667022289624e-06 0.0000000000000000e+00  1.0796861161551048e-05 -5.0384896836192574e-06 0.0000000000000000e+00  1.5157769827129509e-05 -7.3032805117946077e-06 0.0000000000000000e+00  1.9313212483926514e-05 -9.3486867954773255e-06 0.0000000000000000e+00  2.3413361545984968e-05 -1.1387110881769569e-05 0.0000000000000000e+00  2.7516662613453441e-05 -1.3578747304558419e-05 0.0000000000000000e+00  3.1642524372786471e-05 -1.6019732758048402e-05 0.0000000000000000e+00  3.5793590772143873e-05 -1.8761026375000764e-05 0.0000000000000000e+00  3.9965892239540939e-05 -2.1826734594506708e-05 0.0000000000000000e+00  4.4153749566107671e-05 -2.5226578853741709e-05 0.0000000000000000e+00  4.8351965199838997e-05 -2.8963302857584694e-05 0.0000000000000000e+00  5.2556561600088898e-05 -3.3036696310204496e-05 0.0000000000000000e+00  5.6764812923418258e-05 -3.7445595527060010e-05 0.0000000000000000e+00  6.0975002015417894e-05 -4.2188766849749475e-05 0.0000000000000000e+00  6.5186125048204155e-05 -4.7265220965608050e-05 0.0000000000000000e+00  6.9397638146016728e-05 -5.2674266399797029e-05 0.0000000000000000e+00  7.3609271889862220e-05 -5.8415462970313862e-05 0.0000000000000000e+00  7.7820908792212447e-05 -6.4488551403541882e-05 0.0000000000000000e+00  8.2032508710865157e-05 -7.0893390168379119e-05 0.0000000000000000e+00  8.6244066747192473e-05 -7.7629908560474629e-05 0.0000000000000000e+00  9.0455591294215631e-05 -8.4698075665364092e-05 0.0000000000000000e+00  9.4667093575735926e-05 -9.2097881774046367e-05 0.0000000000000000e+00  9.8878583058910111e-05 -9.9829328613873128e-05 0.0000000000000000e+00  1.0309006523253878e-04 -1.0789242557715516e-04 0.0000000000000000e+00  1.0730153950047519e-04 -1.1628719010917392e-04 0.0000000000000000e+00  1.1151299553619925e-04 -1.2501365114639406e-04 0.0000000000000000e+00  1.1572440656414724e-04 -1.3407185471443986e-04 0.0000000000000000e+00  1.1993571775467229e-04 -1.4346187017137273e-04 0.0000000000000000e+00  1.2414682699311540e-04 -1.5318379349877790e-04 0.0000000000000000e+00  1.2835755249304418e-04 -1.6323773930749372e-04 0.0000000000000000e+00  1.3256757332054029e-04 -1.7362380357078571e-04 0.0000000000000000e+00  1.3677630549451892e-04 -1.8434196043637865e-04 0.0000000000000000e+00  1.4098261870766483e-04 -1.9539182255548266e-04 0.0000000000000000e+00 